#ident "$Revision: 1.14 $"
#
# Entries have this format:
#
#	Machine-Name Time Type Class Phone Login
#
# Machine-Name		node name of the remote machine
# Time			day-of-week and time-of-day when you may call
#			(e.g., MoTuTh0800-1700). Use "Any" for any day.
#			Use "Never" for machines that poll you, but that
#			you never call directly.
# Type			device type
# Class			transfer speed
# Phone			phone number (for autodialers) or token (for
#			data switches)
# Login			login sequence is composed of fields and subfields
#			in the format "[expect send] ...".  The expect field
#			may have subfields in the format "expect[-send-expect]".
#			The special characters in the "expect send" pairs
#			is documented in the Dialers file.
#
# Example:
#	cuuxb Any ACU 1200 chicago8101242 in:--in: nuucp word: panzer
#
# This example uses one of the example lines in Devices, with a Hayes 2400:
#sgi Any ACU   2400 14155551212 "" @\r\c ogin:--ogin:-\b\d-ogin:--ogin: @nuucp

# This example uses UUCP/TCP and the 't' protocol.  The 'e' protocol
# could be used instead.
#rhost Any TCP,t Any rhost.foo.com ogin: Urhost assword: guessit

# This example is for an ISDN connection for a PPP link.
#ishost Any ISDN Any "" "" ISDNCALL[64]5551212 CONNECTED
